146
Lattice="16.906923 0.0 0.0 1.40891 10.822045 0.0 0.0 0.0 32.819648" Properties=species:S:1:pos:R:3:forces:R:3 energy=-924.9618522 pbc="F F F"
Pt       1.40891000       2.75137000      12.00000000       0.03261700       0.49989400       0.79507700
Pt       2.81782000       5.13589000      12.51880000       0.00148500       0.08395700      -0.16592500
Pt       1.40891000       7.52040000      13.03760000      -0.00978600      -0.03971600      -0.15375700
Pt       2.81782000       9.90492000      13.55640000      -0.02443700      -0.25157000      -0.05889400
Pt       2.81782000       1.46740000      14.07520000       0.00183600      -0.43789400      -0.96164100
Pt       1.40891000       3.85191000      14.59400000       0.01333300      -0.09098100       0.23816200
Pt       2.81782000       6.23643000      15.11280000       0.05551200       0.05606800       0.12807000
Pt       1.40891000       8.62095000      15.63160000      -0.07444400      -0.11456400       0.25267600
Pt       1.40891000       0.18342000      16.15040000       0.03169000       0.09616400      -0.23280200
Pt       2.81782000       2.56794000      16.66920000      -0.01635100       0.17421100       0.11867000
Pt       1.40891000       4.95246000      17.18800000       0.04643300      -0.04855000       0.38385100
Pt       2.81782000       7.33698000      17.70680000      -0.01871600      -0.15487000       0.43356700
Pt       1.40891000       9.72150000      18.22560000      -0.10757900      -0.00108500       0.18467600
Pt       1.40284000       1.29639000      18.74230000      -0.05174200       0.02845200      -0.15848100
Pt       2.79425000       3.59059000      19.34740000       0.03500300      -0.16116200       0.19220100
Pt       1.35039000       5.93726000      19.90060000      -0.13444700       0.01794800      -0.12095100
Pt       2.75250000       8.29420000      20.31220000       0.02667600       0.09845200       0.16862600
Pt      18.30109000      10.76980000      20.70210000      -0.01006300      -0.00347100       0.14383200
Pt       4.22673000       2.75137000      12.00000000      -0.01885200       0.49312900       0.81335700
Pt       5.63564000       5.13589000      12.51880000       0.00952300       0.09037800      -0.14959600
Pt       4.22673000       7.52040000      13.03760000       0.05209600      -0.05672300      -0.19809400
Pt       5.63564000       9.90492000      13.55640000      -0.00227300      -0.24243600      -0.13973400
Pt       5.63564000       1.46740000      14.07520000      -0.00748500      -0.42213600      -0.92280900
Pt       4.22673000       3.85191000      14.59400000       0.00124100      -0.08477500       0.18771000
Pt       5.63564000       6.23643000      15.11280000       0.00395800       0.07553600       0.16554700
Pt       4.22673000       8.62095000      15.63160000       0.03299300      -0.10868300       0.17401300
Pt       4.22673000       0.18342000      16.15040000      -0.00616400       0.02380300      -0.28173900
Pt       5.63564000       2.56794000      16.66920000      -0.05141100       0.17473100      -0.05522600
Pt       4.22673000       4.95246000      17.18800000      -0.19409800       0.01666100       0.25263900
Pt       5.63564000       7.33698000      17.70680000      -0.12872500       0.08564000       0.21170300
Pt       4.22673000       9.72150000      18.22560000       0.05498800      -0.08717200      -0.14758400
Pt       4.22537000       1.32426000      18.72650000      -0.01904600       0.04873500      -0.19402600
Pt       5.65314000       3.61120000      19.33510000       0.13251100      -0.02793400      -0.00697500
Pt       4.20743000       5.94425000      19.87970000       0.19047600      -0.07968000      -0.18751900
Pt       5.67512000       8.28147000      20.34450000      -0.06306800       0.06115300      -0.00618700
Pt       4.22778000      10.69900000      20.67700000      -0.00791800      -0.10630900       0.27423500
Pt       7.04455000       2.75137000      12.00000000       0.00387100       0.53518500       0.96863800
Pt       8.45346000       5.13589000      12.51880000      -0.00259300       0.11145900      -0.14071000
Pt       7.04455000       7.52040000      13.03760000      -0.01133600       0.00270300      -0.25403000
Pt       8.45346000       9.90492000      13.55640000       0.01399500      -0.19463500      -0.13375700
Pt       8.45346000       1.46740000      14.07520000      -0.02751900      -0.44817300      -0.93630400
Pt       7.04455000       3.85191000      14.59400000       0.00073500      -0.02121600       0.16872300
Pt       8.45346000       6.23643000      15.11280000       0.00608800       0.08698800       0.16471900
Pt       7.04455000       8.62095000      15.63160000      -0.01049200      -0.09459700       0.18522500
Pt       7.04455000       0.18342000      16.15040000       0.01829500      -0.04837400      -0.32332800
Pt       8.45346000       2.56794000      16.66920000       0.07806700       0.17785300      -0.06910800
Pt       7.04455000       4.95246000      17.18800000       0.00832000      -0.15194300      -0.55285000
Pt       8.45346000       7.33698000      17.70680000       0.13534700       0.14577800       0.30069500
Pt       7.04455000       9.72150000      18.22560000      -0.05631600      -0.00140500       0.07787600
Pt       7.05159000       1.32426000      18.70760000      -0.00487800       0.12688600      -0.21146600
Pt       8.44771000       3.61001000      19.32480000      -0.15713200       0.01906200       0.03569000
Pt       7.05766000       5.95219000      19.78830000       0.01048400      -0.04234600       0.01048800
Pt       8.47219000       8.35355000      20.34630000       0.01882700      -0.07032800      -0.17935600
Pt       5.62946000       0.03271000      20.66230000       0.02241900      -0.14280200       0.12726600
Pt       9.86237000       2.75137000      12.00000000       0.05786200       0.48754100       0.80138800
Pt      11.27130000       5.13589000      12.51880000       0.00836000       0.09194200      -0.17444200
Pt       9.86237000       7.52040000      13.03760000      -0.05795400      -0.04590200      -0.20082400
Pt      11.27130000       9.90492000      13.55640000       0.02645400      -0.25916000      -0.08337100
Pt      11.27130000       1.46740000      14.07520000       0.02917900      -0.45225400      -0.92166800
Pt       9.86237000       3.85191000      14.59400000       0.00154300      -0.07937300       0.21071400
Pt      11.27130000       6.23643000      15.11280000      -0.00831300       0.04948200       0.13736800
Pt       9.86237000       8.62095000      15.63160000      -0.04527200      -0.09656100       0.17769600
Pt       9.86237000       0.18342000      16.15040000      -0.03027300       0.08242100      -0.21658700
Pt      11.27130000       2.56794000      16.66920000       0.00273400       0.21617100       0.11788900
Pt       9.86237000       4.95246000      17.18800000       0.19655900       0.01784600       0.24155700
Pt      11.27130000       7.33698000      17.70680000       0.03938400      -0.15767300       0.47329700
Pt       9.86237000       9.72150000      18.22560000       0.08804600       0.04092900       0.14661600
Pt       9.86868000       1.32360000      18.73470000      -0.06852200       0.00252600      -0.13677400
Pt      11.29700000       3.59896000      19.36080000       0.03292600      -0.22424700       0.15561700
Pt       9.88456000       5.95569000      19.86840000      -0.15001600      -0.01366200      -0.12727400
Pt      11.34320000       8.28133000      20.33100000      -0.01003800       0.14468900       0.08885700
Pt       8.46167000       0.00611000      20.67340000       0.03817200      -0.08064700       0.01978900
Pt      12.68020000       2.75137000      12.00000000      -0.02592700       0.51355000       0.80698000
Pt      14.08910000       5.13589000      12.51880000      -0.00412200       0.12325000      -0.10120200
Pt      12.68020000       7.52040000      13.03760000       0.00832900      -0.05722300      -0.15418700
Pt      14.08910000       9.90492000      13.55640000      -0.00397200      -0.23436000      -0.15165900
Pt      14.08910000       1.46740000      14.07520000      -0.01122500      -0.42611700      -0.95850500
Pt      12.68020000       3.85191000      14.59400000      -0.00434300      -0.10152500       0.21648600
Pt      14.08910000       6.23643000      15.11280000       0.01024300       0.13045600       0.10758100
Pt      12.68020000       8.62095000      15.63160000       0.07726500      -0.10683000       0.24537300
Pt      12.68020000       0.18342000      16.15040000      -0.01221300       0.01403700      -0.31504400
Pt      14.08910000       2.56794000      16.66920000      -0.05622800       0.15573300      -0.01745200
Pt      12.68020000       4.95246000      17.18800000      -0.07304900      -0.07093300       0.45739700
Pt      14.08910000       7.33698000      17.70680000      -0.45793100      -0.02498000      -0.38467700
Pt      12.68020000       9.72150000      18.22560000       0.05608800      -0.11277100      -0.02254600
Pt      12.68090000       1.30137000      18.72440000       0.02897400       0.08673800      -0.11750200
Pt      14.14030000       3.59628000      19.35820000       0.12162000      -0.02720900       0.11155700
Pt      12.76960000       5.91658000      19.91550000       0.08378400       0.01784000      -0.14461900
Pt      14.16210000       8.33095000      20.35980000      -0.09755100       0.13237500       0.13605100
Pt      12.69030000      10.70500000      20.69170000       0.00275700      -0.14543200       0.28582400
Pt      15.49800000       2.75137000      12.00000000       0.00313300       0.55706600       0.96467900
Pt      16.90690000       5.13589000      12.51880000      -0.01606000       0.13013700      -0.09281000
Pt      15.49800000       7.52040000      13.03760000      -0.01881100       0.03760600      -0.24510400
Pt      16.90690000       9.90492000      13.55640000      -0.00082300      -0.19753700      -0.16356600
Pt      16.90690000       1.46740000      14.07520000      -0.02306300      -0.46938900      -0.90609400
Pt      15.49800000       3.85191000      14.59400000       0.00351800      -0.03816900       0.25153500
Pt      16.90690000       6.23643000      15.11280000      -0.00612700       0.11576900       0.08762300
Pt      15.49800000       8.62095000      15.63160000       0.01522800      -0.03607000       0.11681800
Pt      15.49800000       0.18342000      16.15040000      -0.00663000      -0.02809900      -0.31383700
Pt      16.90690000       2.56794000      16.66920000       0.10045200       0.14401700      -0.00577600
Pt      15.49800000       4.95246000      17.18800000      -0.00517800      -0.28348100      -0.81709700
Pt      16.90690000       7.33698000      17.70680000       0.46887700       0.06687300      -0.35127800
Pt      15.49800000       9.72150000      18.22560000       0.00002400       0.36153000      -0.13488400
Pt      15.50880000       1.30113000      18.71120000      -0.01131300      -0.07795200      -0.17504400
Pt      16.87450000       3.61100000      19.34860000      -0.02784800      -0.03924100      -0.04061400
Pt      15.51410000       6.03041000      19.66060000      -0.01968400      -0.00502400       0.15136300
Pt      16.86540000       8.36037000      20.38140000       0.03732700       0.08695100       0.09535700
Pt      14.08300000       0.02336000      20.69360000      -0.01118600      -0.13839700       0.10147600
C        5.58770000       0.97320000      22.27140000       0.01465400       0.02251800       0.08038100
C        2.84030000       0.21441000      22.51800000       0.00989100      -0.13821700       0.03081600
C        5.63522000       8.15350000      22.19350000       0.07548300       0.04580700      -0.07058600
C       16.87790000       0.58167000      22.46180000      -0.05344800      -0.03890200       0.00404600
C        7.05629000       4.10790000      20.82970000       0.01591800       0.03338300      -0.29472500
C        2.69586000       3.11375000      21.14010000       0.02592600       0.04732900      -0.25340300
C        9.72022000       5.58786000      21.68210000      -0.10558400      -0.01097300      -0.08830500
C        8.53890000       8.40490000      22.19240000      -0.04946000      -0.01626800       0.06532100
C        4.32726000       5.52226000      21.68420000       0.09359100       0.00340000      -0.06835200
C       14.02770000       0.79405000      22.39340000       0.03344400      -0.05079800       0.00080400
C       11.22819000       0.20496000      22.53430000       0.06140500      -0.10699800       0.00603700
C       15.50800000       8.08300000      21.83730000       0.00316700       0.07229100      -0.12417300
C        8.44309000       0.85444000      22.33170000       0.00976300       0.03260800       0.06153700
C       15.53180000       3.50403000      20.83590000      -0.02742800       0.07670100      -0.24199800
C       11.32450000       3.13011000      21.15810000      -0.03373100       0.06435400      -0.30975500
C        1.06477000       5.62101000      21.71490000      -0.04100300       0.09592100      -0.14316800
C        2.55004000       8.23382000      22.15550000      -0.10409600       0.07721600      -0.01993300
C       11.53150000       8.12493000      22.17080000       0.02921900       0.10960100      -0.07741100
C       13.09490000       5.56720000      21.71880000      -0.00667500       0.11725200      -0.19245400
O        5.55694000       1.56984000      23.26370000      -0.08943800       0.03923900       0.04976000
O        2.86509000       0.32579000      23.67130000      -0.00710300      -0.05506800       0.09797600
O        5.60861000       8.06566000      23.34830000      -0.04096200      -0.00390200       0.18579300
O       16.84820000       0.92476000      23.56860000       0.09815100       0.01092700      -0.02599300
O        7.06700000       3.88738000      22.00890000      -0.01301700      -0.00161800      -0.05966300
O        2.62429000       2.91568000      22.27950000      -0.04876900       0.16751200       0.08549700
O        9.59845000       5.36089000      22.81000000       0.05708400       0.02042100       0.18438600
O        8.57804000       8.41791000      23.35070000       0.03372800       0.02656500       0.21667700
O        4.41982000       5.25413000      22.80610000      -0.05223800       0.01499000       0.14593600
O       13.98960000       1.23168000      23.46470000      -0.07431100       0.06752400       0.03946500
O       11.18119000       0.33076000      23.68480000       0.01634400      -0.09963000       0.09690800
O       15.49960000       7.89668000      23.00590000      -0.00497000      -0.04966300       0.14931300
O        8.41741000       1.38674000      23.36000000       0.08295000       0.04333500       0.08748300
O       15.55760000       3.39649000      22.01660000      -0.05293300      -0.02210500       0.09505400
O       11.34460000       2.93692000      22.30010000       0.04011200       0.16368600       0.11501600
O        0.88477000       5.43005000      22.84060000      -0.04922300      -0.05028900       0.17871900
O        2.41242000       8.18264000      23.30470000       0.01927400      -0.01627900       0.18819400
O       11.66050000       8.00419000      23.31540000       0.01851900      -0.01117500       0.17949200
O       13.31600000       5.35311000      22.83290000       0.01864900      -0.05324500       0.17777700
